 &FCI NORB= 24,NELEC= 10,MS2= 0,
  ORBSYM=1,1,1,2,3,1,1,1,1,1,1,1,1,2,2,2,3,3,3,3,3,3,4,4,
  ISYM=0,
 /
  0.4739933430761520E+01   1   1   1   1
 -0.4327912028916442E+00   2   1   1   1
  0.6414865983054632E-01   2   1   2   1
  0.1046237752539237E+01   2   2   1   1
 -0.1464295865563835E-01   2   2   2   1
  0.7486506111399487E+00   2   2   2   2
  0.1315874930769819E+00   3   1   1   1
 -0.1620985169222820E-01   3   1   2   1
  0.1335320361891691E-01   3   1   2   2
  0.2953646073691298E-01   3   1   3   1
 -0.8922837964104589E-01   3   2   1   1
  0.7318758903962197E-02   3   2   2   1
  0.1195090265330095E-01   3   2   2   2
  0.2338893960443156E-01   3   2   3   1
  0.1266158600699335E+00   3   2   3   2
  0.9812212590144559E+00   3   3   1   1
 -0.1228268135439800E-01   3   3   2   1
  0.6801491426641298E+00   3   3   2   2
 -0.9230935013687446E-02   3   3   3   1
 -0.7001354784920874E-01   3   3   3   2
  0.7238267289891436E+00   3   3   3   3
  0.1038131932353974E+01   4   4   1   1
 -0.1135758062685036E-01   4   4   2   1
  0.7134608466014088E+00   4   4   2   2
  0.4044169357183833E-02   4   4   3   1
 -0.3738854232452950E-01   4   4   3   2
  0.6625955805110041E+00   4   4   3   3
  0.7598681840273612E+00   4   4   4   4
  0.8644685502091266E+00   5   5   1   1
 -0.6347187914574210E-02   5   5   2   1
  0.6724182539310710E+00   5   5   2   2
  0.6727738735650173E-02   5   5   3   1
  0.1415118953839276E-01   5   5   3   2
  0.6007346750831080E+00   5   5   3   3
  0.6170172469518722E+00   5   5   4   4
  0.6567135679972937E+00   5   5   5   5
  0.1492965836432984E+00   6   1   1   1
 -0.2343938035656635E-01   6   1   2   1
  0.2324990357066818E-02   6   1   2   2
 -0.1044981406877919E-02   6   1   3   1
 -0.9304700996435907E-02   6   1   3   2
  0.7230865697725081E-02   6   1   3   3
  0.3125833047606278E-02   6   1   4   4
  0.6344667403768227E-03   6   1   5   5
  0.1048592764428711E-01   6   1   6   1
 -0.2120590930227959E+00   6   2   1   1
  0.4825469978683075E-02   6   2   2   1
 -0.1087452314604168E+00   6   2   2   2
 -0.9627282223358692E-02   6   2   3   1
 -0.1736851279244231E-01   6   2   3   2
 -0.7817339077539306E-01   6   2   3   3
 -0.9990562764210659E-01   6   2   4   4
 -0.7733311277375621E-01   6   2   5   5
  0.6402238693941848E-03   6   2   6   1
  0.3710048110380095E-01   6   2   6   2
 -0.1125231565999372E+00   6   3   1   1
  0.6789832347525869E-03   6   3   2   1
 -0.6137477178754060E-01   6   3   2   2
 -0.4229163028984916E-02   6   3   3   1
  0.2066084736799414E-02   6   3   3   2
 -0.5956396318709488E-01   6   3   3   3
 -0.5656014508273229E-01   6   3   4   4
 -0.3864660437029935E-01   6   3   5   5
  0.9601514762991366E-03   6   3   6   1
  0.2112869929114029E-01   6   3   6   2
  0.2093052585067115E-01   6   3   6   3
  0.4142378112768222E+00   6   6   1   1
 -0.2112425290946576E-02   6   6   2   1
  0.3678060675627258E+00   6   6   2   2
  0.6586740132919847E-02   6   6   3   1
  0.2852710428645314E-01   6   6   3   2
  0.3425019121223468E+00   6   6   3   3
  0.3491049534553524E+00   6   6   4   4
  0.3583533288462615E+00   6   6   5   5
 -0.9281869620497343E-03   6   6   6   1
 -0.2012312453339957E-01   6   6   6   2
 -0.3674626974495054E-02   6   6   6   3
  0.2998796494610919E+00   6   6   6   6
 -0.1273489206623909E+00   7   1   1   1
  0.2050016021152593E-01   7   1   2   1
 -0.4395855349956926E-03   7   1   2   2
  0.5545691063038249E-02   7   1   3   1
  0.1242008149751631E-01   7   1   3   2
 -0.8406957713843956E-02   7   1   3   3
 -0.1984932866244461E-02   7   1   4   4
 -0.3381184854523547E-03   7   1   5   5
 -0.1043455506039379E-01   7   1   6   1
 -0.2051238141350183E-02   7   1   6   2
 -0.1576097900288924E-02   7   1   6   3
  0.1835577865604495E-02   7   1   6   6
  0.1110770334694748E-01   7   1   7   1
  0.1610549504924428E+00   7   2   1   1
 -0.3989305218593048E-02   7   2   2   1
  0.6420586524287415E-01   7   2   2   2
  0.1067836198131122E-01   7   2   3   1
  0.1417429711841094E-01   7   2   3   2
  0.4405160161913650E-01   7   2   3   3
  0.7532114841268858E-01   7   2   4   4
  0.1641481167859051E-01   7   2   5   5
 -0.1308529141977334E-02   7   2   6   1
 -0.3325287779520142E-01   7   2   6   2
 -0.2104353033024195E-01   7   2   6   3
  0.9125983289161975E-02   7   2   6   6
  0.3044363083967658E-02   7   2   7   1
  0.4994423541643754E-01   7   2   7   2
  0.1434036743551783E+00   7   3   1   1
 -0.2333540353859591E-02   7   3   2   1
  0.5747141133884819E-01   7   3   2   2
  0.4035922032315895E-02   7   3   3   1
 -0.2455962361361375E-02   7   3   3   2
  0.5889505811493681E-01   7   3   3   3
  0.5612659657988983E-01   7   3   4   4
  0.2216032786049293E-01   7   3   5   5
 -0.2514262889418682E-03   7   3   6   1
 -0.2513586933128018E-01   7   3   6   2
 -0.1921042516991777E-01   7   3   6   3
  0.6825028156604464E-02   7   3   6   6
  0.8800830483232025E-03   7   3   7   1
  0.3566316474563792E-01   7   3   7   2
  0.3398467349041868E-01   7   3   7   3
 -0.1636217071526451E+00   7   6   1   1
  0.2274582793323805E-02   7   6   2   1
 -0.1086131611900742E+00   7   6   2   2
 -0.6413856763112727E-02   7   6   3   1
 -0.1941092619146513E-01   7   6   3   2
 -0.8657880501400633E-01   7   6   3   3
 -0.9213306131527016E-01   7   6   4   4
 -0.1007437596856548E+00   7   6   5   5
  0.8300802604679228E-03   7   6   6   1
  0.2133477791245348E-01   7   6   6   2
  0.1119440479991915E-01   7   6   6   3
 -0.3661606170367221E-01   7   6   6   6
 -0.1744183341510100E-02   7   6   7   1
 -0.5193410968828993E-02   7   6   7   2
 -0.2612742737760569E-02   7   6   7   3
  0.3794464428190542E-01   7   6   7   6
  0.5582335936245445E+00   7   7   1   1
 -0.2067148457409427E-02   7   7   2   1
  0.5078192577818972E+00   7   7   2   2
  0.1042572538294002E-01   7   7   3   1
  0.6181024198067173E-01   7   7   3   2
  0.4509085557630800E+00   7   7   3   3
  0.4559147963882280E+00   7   7   4   4
  0.5150908766023311E+00   7   7   5   5
 -0.1998077179078574E-02   7   7   6   1
 -0.3592266909656511E-01   7   7   6   2
 -0.8398126677562123E-02   7   7   6   3
  0.3453049165242934E+00   7   7   6   6
  0.3330446158834897E-02   7   7   7   1
 -0.1665731429354791E-01   7   7   7   2
 -0.1581130369656944E-01   7   7   7   3
 -0.9281265072100886E-01   7   7   7   6
  0.5203528438910464E+00   7   7   7   7
 -0.7481155161555306E-01   8   1   1   1
  0.7374125486701362E-02   8   1   2   1
 -0.1186287725945963E-01   8   1   2   2
 -0.3153585631649049E-01   8   1   3   1
 -0.2582273143992492E-01   8   1   3   2
  0.1211859286385048E-01   8   1   3   3
 -0.2357359840856645E-02   8   1   4   4
 -0.6282575586621139E-02   8   1   5   5
  0.5437717593361038E-02   8   1   6   1
  0.9507246794582171E-02   8   1   6   2
  0.4397879302562423E-02   8   1   6   3
 -0.6615941267296839E-02   8   1   6   6
 -0.1016425976773600E-01   8   1   7   1
 -0.1074327677116947E-01   8   1   7   2
 -0.3845601369526527E-02   8   1   7   3
  0.6440350624167389E-02   8   1   7   6
 -0.1058080972701857E-01   8   1   7   7
  0.3559625062105606E-01   8   1   8   1
  0.1420321642239397E-01   8   2   1   1
 -0.3549246899741280E-02   8   2   2   1
 -0.1002611589039029E-01   8   2   2   2
 -0.1392204426738212E-01   8   2   3   1
 -0.3078158408040763E-01   8   2   3   2
  0.2406002385326784E-01   8   2   3   3
  0.9819547146675857E-02   8   2   4   4
 -0.1628445640954927E-01   8   2   5   5
  0.5255169206305019E-02   8   2   6   1
  0.1065445245732235E-01   8   2   6   2
  0.1064956765234382E-01   8   2   6   3
 -0.2091736292813228E-02   8   2   6   6
 -0.7063595772153727E-02   8   2   7   1
 -0.4925249900995577E-02   8   2   7   2
 -0.3142823333195988E-03   8   2   7   3
  0.1014793583498310E-01   8   2   7   6
 -0.1468016753308844E-01   8   2   7   7
  0.1573765304280058E-01   8   2   8   1
  0.3560751670372626E-01   8   2   8   2
 -0.4176837645507969E+00   8   3   1   1
  0.1261216856942431E-01   8   3   2   1
 -0.1516169068743584E+00   8   3   2   2
  0.5298515964563985E-02   8   3   3   1
  0.4531339546744893E-01   8   3   3   2
 -0.1668887162877540E+00   8   3   3   3
 -0.1551158484911834E+00   8   3   4   4
 -0.1177435819139390E+00   8   3   5   5
 -0.6422597846971883E-02   8   3   6   1
  0.3999282513294816E-01   8   3   6   2
  0.2580478750362082E-01   8   3   6   3
 -0.2192666882743929E-01   8   3   6   6
  0.7058226368342855E-02   8   3   7   1
 -0.2421336764305913E-01   8   3   7   2
 -0.3244704738653472E-01   8   3   7   3
  0.2895519962692138E-01   8   3   7   6
 -0.4973398531698273E-01   8   3   7   7
 -0.7957727837662078E-02   8   3   8   1
 -0.9367665465270939E-02   8   3   8   2
  0.1198599447062716E+00   8   3   8   3
  0.1037213840399129E+00   8   6   1   1
 -0.1557168584648494E-02   8   6   2   1
  0.5457411498440252E-01   8   6   2   2
  0.6811372083340538E-02   8   6   3   1
  0.3029315186342783E-01   8   6   3   2
  0.3550456641684510E-01   8   6   3   3
  0.4081927315159858E-01   8   6   4   4
  0.4196498849894210E-01   8   6   5   5
 -0.1254560557123009E-02   8   6   6   1
 -0.1634616038110239E-01   8   6   6   2
 -0.7243923695718496E-03   8   6   6   3
  0.2676866836162710E-01   8   6   6   6
  0.2194548866848088E-02   8   6   7   1
  0.1479039390571453E-01   8   6   7   2
  0.1113663250567311E-01   8   6   7   3
 -0.1175476985516475E-01   8   6   7   6
  0.3936270794136679E-01   8   6   7   7
 -0.6926807358453898E-02   8   6   8   1
  0.1692041494348739E-02   8   6   8   2
 -0.1541822474262316E-01   8   6   8   3
  0.2667765785143725E-01   8   6   8   6
 -0.1209107719137483E+00   8   7   1   1
  0.3803606771811818E-02   8   7   2   1
 -0.2575624955964946E-01   8   7   2   2
 -0.3534938355463674E-02   8   7   3   1
  0.7400742438812321E-02   8   7   3   2
 -0.3369766808061766E-01   8   7   3   3
 -0.2779167861949975E-01   8   7   4   4
 -0.6112497356659653E-02   8   7   5   5
 -0.5151953707185071E-03   8   7   6   1
  0.1432969312045621E-01   8   7   6   2
  0.1194980539726098E-01   8   7   6   3
 -0.8215914416695953E-03   8   7   6   6
 -0.4564225484702828E-04   8   7   7   1
 -0.1920875698304401E-01   8   7   7   2
 -0.1598673042282346E-01   8   7   7   3
  0.5742297531427854E-02   8   7   7   6
  0.1045205132345084E-01   8   7   7   7
  0.3178506232324218E-02   8   7   8   1
  0.2062515502481915E-02   8   7   8   2
  0.2683041747812214E-01   8   7   8   3
 -0.5834402867642004E-02   8   7   8   6
  0.2060412144861888E-01   8   7   8   7
  0.8554436915151652E+00   8   8   1   1
 -0.1375595348781721E-01   8   8   2   1
  0.5782536897986841E+00   8   8   2   2
 -0.1812316664818474E-02   8   8   3   1
 -0.2794115280809401E-01   8   8   3   2
  0.5933113829882161E+00   8   8   3   3
  0.5610249009407355E+00   8   8   4   4
  0.5253266423306709E+00   8   8   5   5
  0.5915664424505255E-02   8   8   6   1
 -0.5856364256785829E-01   8   8   6   2
 -0.4243629431783241E-01   8   8   6   3
  0.3298918609164335E+00   8   8   6   6
 -0.6137076190265586E-02   8   8   7   1
  0.3456915045840762E-01   8   8   7   2
  0.4269560948327566E-01   8   8   7   3
 -0.6990083742646758E-01   8   8   7   6
  0.4185561714842497E+00   8   8   7   7
  0.4487168540830132E-02   8   8   8   1
  0.1274615512940518E-01   8   8   8   2
 -0.1099531969460049E+00   8   8   8   3
  0.3362311709612885E-01   8   8   8   6
 -0.2211300336452315E-01   8   8   8   7
  0.5287888817210803E+00   8   8   8   8
  0.1847613225286578E+00   9   1   1   1
 -0.2664163784474144E-01   9   1   2   1
  0.7788230648136244E-02   9   1   2   2
  0.1361089578914411E-01   9   1   3   1
  0.3211247159213078E-02   9   1   3   2
  0.2621167192074741E-02   9   1   3   3
  0.4135631966488916E-02   9   1   4   4
  0.2780965222934003E-02   9   1   5   5
  0.7834768682559428E-02   9   1   6   1
 -0.3869460149405666E-02   9   1   6   2
 -0.1485410456434778E-02   9   1   6   3
  0.2299605338313067E-02   9   1   6   6
 -0.5601539221638832E-02   9   1   7   1
  0.4018187645171302E-02   9   1   7   2
  0.2066075943066281E-02   9   1   7   3
 -0.2356918766000250E-02   9   1   7   6
  0.3163406370238630E-02   9   1   7   7
 -0.1110768076693902E-01   9   1   8   1
 -0.2130227477607723E-02   9   1   8   2
 -0.3360654168340302E-02   9   1   8   3
  0.2294448494042417E-02   9   1   8   6
 -0.2415575271206886E-02   9   1   8   7
  0.4723167796062966E-02   9   1   8   8
  0.1304019702681075E-01   9   1   9   1
 -0.1742132458207746E+00   9   2   1   1
  0.6908144631992021E-02   9   2   2   1
 -0.5666515346577504E-01   9   2   2   2
  0.9276525998096067E-04   9   2   3   1
  0.2272321958085507E-01   9   2   3   2
 -0.3500602404623181E-01   9   2   3   3
 -0.6494031342349728E-01   9   2   4   4
 -0.5793708762419312E-01   9   2   5   5
 -0.2875028550857641E-02   9   2   6   1
  0.1575264946222074E-01   9   2   6   2
  0.5741586009968033E-02   9   2   6   3
 -0.6246049486587102E-02   9   2   6   6
  0.2940105154353284E-02   9   2   7   1
 -0.5829737358111901E-02   9   2   7   2
 -0.7512159087732037E-02   9   2   7   3
  0.9891179316061455E-02   9   2   7   6
 -0.1523736422271675E-01   9   2   7   7
 -0.1023849637908262E-02   9   2   8   1
  0.5241208275159137E-02   9   2   8   2
  0.4397800897338729E-01   9   2   8   3
 -0.4451330047408122E-03   9   2   8   6
  0.3575843660198148E-02   9   2   8   7
 -0.2614462139779376E-01   9   2   8   8
 -0.1759290423746493E-02   9   2   9   1
  0.4001625204315373E-01   9   2   9   2
  0.1146465142090039E+00   9   3   1   1
 -0.3858683672934798E-02   9   3   2   1
  0.6066918767796423E-01   9   3   2   2
  0.2163514193843034E-02   9   3   3   1
  0.4400630196817092E-01   9   3   3   2
  0.2857952073543239E-01   9   3   3   3
  0.3981251149631761E-01   9   3   4   4
  0.5588640559887274E-01   9   3   5   5
  0.1026088971800716E-02   9   3   6   1
 -0.1602712089265942E-01   9   3   6   2
  0.5318804112591002E-02   9   3   6   3
  0.2783832090358530E-01   9   3   6   6
 -0.7719944588351953E-03   9   3   7   1
  0.7454542999370104E-02   9   3   7   2
  0.4166414464671885E-02   9   3   7   3
 -0.1666145436668862E-01   9   3   7   6
  0.5548494837700534E-01   9   3   7   7
 -0.1230179340170306E-02   9   3   8   1
  0.1223465360213926E-01   9   3   8   2
 -0.1730116083501135E-01   9   3   8   3
  0.2772532649112112E-01   9   3   8   6
 -0.1011598041494602E-02   9   3   8   7
  0.3150974435350537E-01   9   3   8   8
  0.1689507381473356E-02   9   3   9   1
 -0.8161368076649300E-03   9   3   9   2
  0.5682423215023825E-01   9   3   9   3
  0.7128399359424609E-01   9   6   1   1
 -0.1847834867359239E-02   9   6   2   1
  0.3881286108362638E-01   9   6   2   2
  0.1275790066805865E-03   9   6   3   1
 -0.1085322372794693E-01   9   6   3   2
  0.4445129512118521E-01   9   6   3   3
  0.4188597476634941E-01   9   6   4   4
  0.3038586838271698E-01   9   6   5   5
  0.7194882572635107E-03   9   6   6   1
 -0.6789545881772923E-02   9   6   6   2
 -0.6275234676471156E-02   9   6   6   3
  0.5459045631196512E-02   9   6   6   6
 -0.6872427698708162E-03   9   6   7   1
  0.5441162427536962E-02   9   6   7   2
  0.3289852921876146E-02   9   6   7   3
 -0.5361981582394398E-02   9   6   7   6
  0.1128727784745318E-01   9   6   7   7
  0.4863822808012818E-04   9   6   8   1
  0.1666374455739073E-02   9   6   8   2
 -0.6350064311321631E-02   9   6   8   3
  0.1997874793724954E-02   9   6   8   6
 -0.7225262571004070E-02   9   6   8   7
  0.3640680339279040E-01   9   6   8   8
  0.5682837778070177E-03   9   6   9   1
  0.1053395157279077E-02   9   6   9   2
 -0.1744027790260734E-02   9   6   9   3
  0.1424781927516158E-01   9   6   9   6
  0.1333518477959591E-02   9   7   1   1
  0.9233025311158645E-03   9   7   2   1
  0.1106053942899375E-01   9   7   2   2
 -0.1718261166479472E-02   9   7   3   1
 -0.9081562611933333E-02   9   7   3   2
  0.1059051749458260E-01   9   7   3   3
  0.8398971345814457E-02   9   7   4   4
  0.1567736281663280E-01   9   7   5   5
  0.6808245708232384E-04   9   7   6   1
 -0.2810612161785312E-04   9   7   6   2
 -0.5590761743411252E-02   9   7   6   3
 -0.4440810174406083E-03   9   7   6   6
 -0.3797281123515210E-03   9   7   7   1
 -0.2978204715151374E-02   9   7   7   2
  0.2929761921466046E-02   9   7   7   3
 -0.4061647770422637E-02   9   7   7   6
  0.5076482692676177E-02   9   7   7   7
  0.1701387996889598E-02   9   7   8   1
 -0.7185501514112322E-02   9   7   8   2
 -0.6171279752051775E-02   9   7   8   3
 -0.1030352884763942E-01   9   7   8   6
  0.7073456401729211E-02   9   7   8   7
  0.9717709750650456E-02   9   7   8   8
 -0.6898648849318263E-03   9   7   9   1
 -0.1162047532090093E-01   9   7   9   2
 -0.1193209749396506E-01   9   7   9   3
 -0.6956070752520534E-02   9   7   9   6
  0.2367010274316736E-01   9   7   9   7
 -0.7818602220284600E-01   9   8   1   1
  0.4851623100652664E-02   9   8   2   1
  0.7067359286130821E-02   9   8   2   2
  0.7720184927605556E-02   9   8   3   1
  0.6210497577184891E-01   9   8   3   2
 -0.3612523928495508E-01   9   8   3   3
 -0.2153693175472952E-01   9   8   4   4
  0.2375334263331914E-01   9   8   5   5
 -0.4020558495493704E-02   9   8   6   1
  0.6336560690892688E-03   9   8   6   2
  0.1644702241594993E-01   9   8   6   3
  0.2527313542073758E-01   9   8   6   6
  0.4967806685251219E-02   9   8   7   1
 -0.9148971102969614E-02   9   8   7   2
 -0.1175125320343507E-01   9   8   7   3
 -0.1183491917283698E-01   9   8   7   6
  0.5381028628558956E-01   9   8   7   7
 -0.8933491491694215E-02   9   8   8   1
 -0.1589524799729566E-02   9   8   8   2
  0.2386513045363428E-01   9   8   8   3
  0.2245917745518888E-01   9   8   8   6
  0.1394770750612850E-01   9   8   8   7
 -0.1736031120991224E-01   9   8   8   8
  0.3749109368614972E-04   9   8   9   1
  0.8145062330595355E-02   9   8   9   2
  0.4068923399894239E-01   9   8   9   3
 -0.1003431598982289E-01   9   8   9   6
 -0.5609615495319128E-02   9   8   9   7
  0.6156989993916927E-01   9   8   9   8
  0.5916429869284132E+00   9   9   1   1
 -0.3642929547516745E-02   9   9   2   1
  0.5168632129196546E+00   9   9   2   2
  0.5167941133090329E-03   9   9   3   1
  0.3635910819257231E-03   9   9   3   2
  0.5100810379472468E+00   9   9   3   3
  0.4844860532300180E+00   9   9   4   4
  0.5014342602199858E+00   9   9   5   5
  0.1306707494545936E-02   9   9   6   1
 -0.3464667122951257E-01   9   9   6   2
 -0.2290323653983659E-01   9   9   6   3
  0.3275602162573470E+00   9   9   6   6
 -0.1372710166852985E-02   9   9   7   1
  0.1592915289259159E-02   9   9   7   2
  0.7430588106505959E-02   9   9   7   3
 -0.6900308026268243E-01   9   9   7   6
  0.4354501217971539E+00   9   9   7   7
  0.4841947891866174E-04   9   9   8   1
  0.1101825404900808E-02   9   9   8   2
 -0.4527503348058454E-01   9   9   8   3
  0.2226175402647526E-01   9   9   8   6
 -0.1202691449812554E-02   9   9   8   7
  0.4610792437986815E+00   9   9   8   8
  0.1250720888778631E-02   9   9   9   1
 -0.6479698972079839E-02   9   9   9   2
  0.2696066814466319E-01   9   9   9   3
  0.3061266793708195E-01   9   9   9   6
  0.7348831499202839E-02   9   9   9   7
  0.1229711002082090E-01   9   9   9   8
  0.4659511605914238E+00   9   9   9   9
  0.3082769485808956E+00  10   1   1   1
 -0.4501904096457374E-01  10   1   2   1
  0.1093871105597630E-01  10   1   2   2
  0.1609881798483707E-01  10   1   3   1
 -0.4729495758093097E-03  10   1   3   2
  0.4733666316648515E-02  10   1   3   3
  0.8652668265216313E-02  10   1   4   4
  0.4573666891070210E-02  10   1   5   5
  0.1511289491590552E-01  10   1   6   1
 -0.4533133334859590E-02  10   1   6   2
 -0.8718332541101936E-03  10   1   6   3
  0.2324511078721727E-02  10   1   6   6
 -0.1239484921214610E-01  10   1   7   1
  0.4346686847535271E-02  10   1   7   2
  0.1741133404099393E-02  10   1   7   3
 -0.2391969843771984E-02  10   1   7   6
  0.2875598609810643E-02  10   1   7   7
 -0.1067558867607521E-01  10   1   8   1
 -0.1841143165682463E-03  10   1   8   2
 -0.6067794822046174E-02  10   1   8   3
  0.1929451577981697E-02  10   1   8   6
 -0.2667573014015228E-02  10   1   8   7
  0.7459410670093623E-02  10   1   8   8
  0.2006928221997297E-01  10   1   9   1
 -0.4332668213696592E-02  10   1   9   2
  0.2639118437070853E-02  10   1   9   3
  0.1187731704358893E-02  10   1   9   6
 -0.9556746653755818E-03  10   1   9   7
 -0.1605401592908503E-02  10   1   9   8
  0.2129427388505294E-02  10   1   9   9
  0.3289373963105820E-01  10   1  10   1
 -0.2879021737029264E+00  10   2   1   1
  0.1108066803267911E-01  10   2   2   1
 -0.9844047533288409E-01  10   2   2   2
 -0.4476612165310168E-02  10   2   3   1
  0.2659438573597005E-02  10   2   3   2
 -0.9825898051098150E-01  10   2   3   3
 -0.7249023441233614E-01  10   2   4   4
 -0.7954067565790332E-01  10   2   5   5
 -0.3366236171496414E-02  10   2   6   1
  0.3097342262688936E-01  10   2   6   2
  0.1726194053149976E-01  10   2   6   3
 -0.1934355033443490E-01  10   2   6   6
  0.2768388131450941E-02  10   2   7   1
 -0.1808888735490295E-01  10   2   7   2
 -0.2081985619368216E-01  10   2   7   3
  0.2184472818165311E-01  10   2   7   6
 -0.3994550686206919E-01  10   2   7   7
  0.3041890329425225E-02  10   2   8   1
  0.2801037014637696E-02  10   2   8   2
  0.6225862547295023E-01  10   2   8   3
 -0.1792767002752139E-01  10   2   8   6
  0.2174048664452580E-01  10   2   8   7
 -0.6975369216191724E-01  10   2   8   8
 -0.4801335926638277E-02  10   2   9   1
  0.1775747351332476E-01  10   2   9   2
 -0.2051259839576974E-01  10   2   9   3
 -0.9463332167424690E-02  10   2   9   6
  0.6172178002774737E-02  10   2   9   7
  0.6562709377092406E-02  10   2   9   8
 -0.3905902658608985E-01  10   2   9   9
 -0.6981341236432390E-02  10   2  10   1
  0.5929599115707261E-01  10   2  10   2
  0.1188706718800447E+00  10   3   1   1
 -0.6655026536093632E-02  10   3   2   1
  0.2292454315927897E-01  10   3   2   2
 -0.1419645362400382E-01  10   3   3   1
 -0.4795875048524362E-01  10   3   3   2
  0.6049105115306242E-01  10   3   3   3
  0.3607447108465462E-01  10   3   4   4
  0.1506172811260341E-01  10   3   5   5
  0.6559103405444505E-02  10   3   6   1
  0.8155409703844950E-03  10   3   6   2
 -0.7636523005079485E-03  10   3   6   3
 -0.2565991958723195E-02  10   3   6   6
 -0.8487037291649280E-02  10   3   7   1
 -0.1291477484668797E-02  10   3   7   2
  0.9764686418357980E-02  10   3   7   3
  0.3290280949913967E-02  10   3   7   6
 -0.9832173271036233E-02  10   3   7   7
  0.1647330902011991E-01  10   3   8   1
  0.2743262514846796E-01  10   3   8   2
 -0.3962717715800962E-01  10   3   8   3
 -0.2472697792742350E-02  10   3   8   6
 -0.3624464109614355E-02  10   3   8   7
  0.3957565598212488E-01  10   3   8   8
 -0.1131268139390462E-02  10   3   9   1
 -0.1428769292690046E-01  10   3   9   2
  0.1219885174225600E-02  10   3   9   3
  0.2131105985073562E-02  10   3   9   6
  0.4410319337756614E-02  10   3   9   7
 -0.1799458637884386E-01  10   3   9   8
  0.8786900011293231E-02  10   3   9   9
  0.1355620076772805E-02  10   3  10   1
 -0.1340728824963790E-01  10   3  10   2
  0.4040724263543577E-01  10   3  10   3
  0.1329444577186854E+00  10   6   1   1
 -0.3115009302507125E-02  10   6   2   1
  0.7314204275598621E-01  10   6   2   2
  0.5180479491686376E-02  10   6   3   1
  0.3311265545570106E-02  10   6   3   2
  0.5954044777185830E-01  10   6   3   3
  0.6762967997514573E-01  10   6   4   4
  0.6144335406143202E-01  10   6   5   5
 -0.1312686144933541E-03  10   6   6   1
 -0.1760975172041496E-01  10   6   6   2
 -0.1324101828382273E-01  10   6   6   3
  0.1666539175062445E-01  10   6   6   6
  0.8445048232303353E-03  10   6   7   1
  0.1341245135385005E-01  10   6   7   2
  0.1186525050936821E-01  10   6   7   3
 -0.1511696899690736E-01  10   6   7   6
  0.3397743697582743E-01  10   6   7   7
 -0.5142867326962557E-02  10   6   8   1
 -0.8710706318419921E-02  10   6   8   2
 -0.2200419845710025E-01  10   6   8   3
  0.5559491793576191E-02  10   6   8   6
 -0.4684188549027475E-02  10   6   8   7
  0.4913332516665662E-01  10   6   8   8
  0.2258044294325488E-02  10   6   9   1
 -0.1123897196709836E-01  10   6   9   2
  0.2553125059394399E-02  10   6   9   3
  0.3638596499860786E-02  10   6   9   6
  0.7162878288681210E-02  10   6   9   7
 -0.3494223410120956E-02  10   6   9   8
  0.3641292871451061E-01  10   6   9   9
  0.2710647649280404E-02  10   6  10   1
 -0.1372696141616207E-01  10   6  10   2
  0.2397416685834680E-03  10   6  10   3
  0.1668626959317514E-01  10   6  10   6
 -0.3996593063408477E-01  10   7   1   1
  0.2266629225335816E-02  10   7   2   1
  0.3743150441003448E-02  10   7   2   2
 -0.5923555037847204E-02  10   7   3   1
 -0.2403785451930343E-02  10   7   3   2
  0.1220472498530655E-01  10   7   3   3
  0.1076664784782538E-01  10   7   4   4
  0.5252438114546307E-02  10   7   5   5
  0.6618075070846238E-03  10   7   6   1
  0.6481373687837289E-02  10   7   6   2
  0.6000659770592759E-02  10   7   6   3
  0.2954471037787067E-02  10   7   6   6
 -0.1513982486094885E-02  10   7   7   1
 -0.7956430349378893E-02  10   7   7   2
 -0.8607362408266796E-02  10   7   7   3
  0.2416074077947746E-02  10   7   7   6
  0.1319208194084355E-01  10   7   7   7
  0.6146087818465409E-02  10   7   8   1
  0.1370032399281988E-01  10   7   8   2
  0.8317314102627094E-02  10   7   8   3
  0.1751039041544744E-02  10   7   8   6
  0.5331238113474024E-02  10   7   8   7
  0.9554764389554287E-02  10   7   8   8
 -0.2191966908407761E-02  10   7   9   1
  0.1114975608895185E-01  10   7   9   2
  0.6988214493174788E-02  10   7   9   3
  0.5341288696302070E-02  10   7   9   6
 -0.1079382222712409E-01  10   7   9   7
  0.2711666804496440E-02  10   7   9   8
  0.1328333749237858E-01  10   7   9   9
 -0.2347650200877242E-02  10   7  10   1
  0.8319065749639733E-02  10   7  10   2
  0.3753313968366371E-02  10   7  10   3
 -0.4804929754395533E-02  10   7  10   6
  0.1828844092569056E-01  10   7  10   7
 -0.8388630864673802E-01  10   8   1   1
  0.5457502095525850E-02  10   8   2   1
 -0.9852596293255224E-02  10   8   2   2
  0.1532924532588681E-01  10   8   3   1
  0.6060476780660397E-01  10   8   3   2
 -0.5495968793402400E-01  10   8   3   3
 -0.1998022542220951E-01  10   8   4   4
 -0.1645813235218943E-01  10   8   5   5
 -0.6382053459499540E-02  10   8   6   1
 -0.8772004969873761E-02  10   8   6   2
  0.8231030832848638E-03  10   8   6   3
  0.5727247249515215E-02  10   8   6   6
  0.8495994127448947E-02  10   8   7   1
  0.1614506606516492E-01  10   8   7   2
  0.2022970885866769E-02  10   8   7   3
 -0.5621219929009876E-03  10   8   7   6
  0.5955590117685865E-02  10   8   7   7
 -0.1738862863058757E-01  10   8   8   1
 -0.1574379108434847E-01  10   8   8   2
  0.3503638267271141E-01  10   8   8   3
  0.1368610242638873E-01  10   8   8   6
  0.5232394043576609E-02  10   8   8   7
 -0.2958945021916171E-01  10   8   8   8
  0.1781957195339995E-02  10   8   9   1
  0.1297158463824693E-01  10   8   9   2
  0.1110377846337119E-01  10   8   9   3
 -0.4761015316008838E-02  10   8   9   6
 -0.6460237870227652E-02  10   8   9   7
  0.2414713017109840E-01  10   8   9   8
 -0.1948295686785099E-01  10   8   9   9
 -0.4612101014915895E-03  10   8  10   1
  0.1280449988792871E-01  10   8  10   2
 -0.2715413317162617E-01  10   8  10   3
  0.1668934718840609E-02  10   8  10   6
  0.1546513407032067E-02  10   8  10   7
  0.4437687395745216E-01  10   8  10   8
  0.1314703527537485E+00  10   9   1   1
 -0.5801867005848511E-02  10   9   2   1
  0.3055577115658002E-01  10   9   2   2
 -0.2142685249806887E-02  10   9   3   1
 -0.2958787158740918E-01  10   9   3   2
  0.4228095918628653E-01  10   9   3   3
  0.4688199489906360E-01  10   9   4   4
  0.1041879101410438E-01  10   9   5   5
  0.2941291442467615E-02  10   9   6   1
 -0.1261324345272697E-01  10   9   6   2
 -0.1135692361365495E-01  10   9   6   3
 -0.5789372783503306E-02  10   9   6   6
 -0.3197541927806945E-02  10   9   7   1
  0.1897497910662013E-01  10   9   7   2
  0.1747240722669459E-01  10   9   7   3
  0.4061437253680893E-02  10   9   7   6
 -0.2542380976790683E-01  10   9   7   7
  0.3146350493137499E-02  10   9   8   1
  0.5965343108490725E-02  10   9   8   2
 -0.2828869641826341E-01  10   9   8   3
 -0.1182717287278078E-02  10   9   8   6
 -0.1129292928894131E-01  10   9   8   7
  0.2641751137276563E-01  10   9   8   8
  0.1319906943758904E-02  10   9   9   1
 -0.1197950037128318E-01  10   9   9   2
 -0.8255111324054706E-02  10   9   9   3
  0.6529888190783522E-02  10   9   9   6
  0.1367454606172191E-02  10   9   9   7
 -0.2554412700028962E-01  10   9   9   8
 -0.2846028085679994E-02  10   9   9   9
  0.3158297130205254E-02  10   9  10   1
 -0.1394216379485792E-01  10   9  10   2
  0.1442090463122690E-01  10   9  10   3
  0.6414486460997196E-02  10   9  10   6
 -0.1972292101682063E-02  10   9  10   7
 -0.9301465355434566E-02  10   9  10   8
  0.2399834500206707E-01  10   9  10   9
  0.7632627067490093E+00  10  10   1   1
 -0.8877423692567910E-02  10  10   2   1
  0.5836721143127707E+00  10  10   2   2
  0.2053885806263562E-02  10  10   3   1
 -0.8961878331160706E-02  10  10   3   2
  0.5523381453528105E+00  10  10   3   3
  0.5850467314753068E+00  10  10   4   4
  0.5357038052519645E+00  10  10   5   5
  0.2985557150481880E-02  10  10   6   1
 -0.6042772558688925E-01  10  10   6   2
 -0.3485271757729025E-01  10  10   6   3
  0.3331389221237663E+00  10  10   6   6
 -0.2696845973828865E-02  10  10   7   1
  0.3533537091130253E-01  10  10   7   2
  0.3189019037193350E-01  10  10   7   3
 -0.7153305060553994E-01  10  10   7   6
  0.4320031652264809E+00  10  10   7   7
 -0.6180269358772974E-03  10  10   8   1
  0.8138448401337595E-02  10  10   8   2
 -0.9760550435904009E-01  10  10   8   3
  0.3430577219141630E-01  10  10   8   6
 -0.9327842796436059E-02  10  10   8   7
  0.4869178664359148E+00  10  10   8   8
  0.3368923705170904E-02  10  10   9   1
 -0.3454389158774140E-01  10  10   9   2
  0.3689498682130438E-01  10  10   9   3